(lp1
(lp2
cnumpy.core.multiarray
scalar
p3
(cnumpy
dtype
p4
(S'f8'
I0
I1
tRp5
(I3
S'<'
NNNI-1
I-1
I0
tbS'~\xf4o\xd9I{\x86?'
tRp6
ag3
(g5
S'\xe6\xfa\xe6\xfe=_\x06@'
tRp7
ag3
(g5
S'\x81\xa0@\x91<\xed\xac?'
tRp8
ag3
(g5
S'\xf7nt\x0e[\\\x12@'
tRp9
ag3
(g5
S'\xe4\xadG\xc6H\x83\x1a@'
tRp10
ag3
(g5
S'1,\xf7j\x11I\x0c@'
tRp11
ag3
(g5
S'\xd2\xf2\x9a\xfb\xa9\x83\x05@'
tRp12
ag3
(g5
S'Sy\xb7O\xa8IA@'
tRp13
ag3
(g5
S'N\x03\xd8\xf08!\xdd?'
tRp14
ag3
(g5
S'a\xc3i\x84\x0b\xc4\x10@'
tRp15
ag3
(g5
S'\x9cmG\xcc\xc2\x18.@'
tRp16
ag3
(g5
S"2M\xa9S{\x15'@"
tRp17
ag3
(g5
S'O|\xf9d\xca\x8f&@'
tRp18
ag3
(g5
S'\x98\xdf\x80\xa9\xf4\xce)@'
tRp19
ag3
(g5
S'&\xcc\xd1\x10\x17\x93(@'
tRp20
ag3
(g5
S'\xa9\x9bv\xe3\xe5\xa3#@'
tRp21
ag3
(g5
S'z\x9f_u]\xb5\xbf?'
tRp22
ag3
(g5
S'\xe1=\x9ai\x92\x8e\xb6?'
tRp23
ag3
(g5
S'\xa5\x04\x10}\x07m\xc9?'
tRp24
ag3
(g5
S'~a\x19*\x92\xb2\xb1?'
tRp25
ag3
(g5
S'\x18\xd9\xbc\t\xc0C\xd2?'
tRp26
ag3
(g5
S'\xbf\xbc}\x8b\x11;\xd8?'
tRp27
ag3
(g5
S'\x80\xba)\xf6\xdcy:@'
tRp28
ag3
(g5
S'd\xd2~\xaaWB\xf6?'
tRp29
ag3
(g5
S'v$\xd9+\xf7t#@'
tRp30
ag3
(g5
S'~2\xb2$\xcc\x7f\x00@'
tRp31
ag3
(g5
S'"{\xd2\xd8\xb7FD@'
tRp32
ag3
(g5
S'\x16\xbdk\xd8_i:@'
tRp33
ag3
(g5
S'\xb3Xbx\xaa\xf9#@'
tRp34
ag3
(g5
S'h\xb2\x85\x01\xee\xcf\x18@'
tRp35
ag3
(g5
S'/\xbf\x0ea\xfd\xa6\x18@'
tRp36
ag3
(g5
S'\x93hw\x8a\x96\x00\x1d@'
tRp37
ag3
(g5
S'H%w\xe5\x1ez0@'
tRp38
ag3
(g5
S'\x9e\x99\xc5\x01\xb0\xd6%@'
tRp39
ag3
(g5
S'\xcc\xb9\xca\x92\x19S\xb4?'
tRp40
ag3
(g5
S'\xa0\xc7R\xbd\xa1S\xd2?'
tRp41
ag3
(g5
S'\xba<\xff\xca\xdb\xfe\xa8?'
tRp42
ag3
(g5
S'\xdf\x9a\xe9\xf0\\\x82\xce?'
tRp43
ag3
(g5
S'\xf7=w\x10\xff\x99v?'
tRp44
ag3
(g5
S'\xaat\x08\xda\xa8\xe1\xb3?'
tRp45
ag3
(g5
S'TQr\xd5V\xf6\x06@'
tRp46
ag3
(g5
S'\xda*\xa2\xa7\xed\x0b\xb9?'
tRp47
ag3
(g5
S'\x85\xf1-\xd5\x99\x924\xc0'
tRp48
ag3
(g5
S'\xfbo\xd7\xbb\xc5\xb7)@'
tRp49
ag3
(g5
S'\xd0\xae\xc7+\x04o%@'
tRp50
ag3
(g5
S'\xca|\x03RD\xa0\x17@'
tRp51
ag3
(g5
S'\x0e\x1at\xf2 f%@'
tRp52
ag3
(g5
S'\x08\x9a\xea \xc8N.@'
tRp53
ag3
(g5
S'\xe1\x0fo9.tQ@'
tRp54
ag3
(g5
S'tW\x9e\x02*\xfa @'
tRp55
ag3
(g5
S'\x1a\xdf\xa2\x0b\x0c\x9f!@'
tRp56
ag3
(g5
S'Z\x16\xeb\xbd\xd6\x91\x1b@'
tRp57
ag3
(g5
S'\xa3\xa9\xd8\x917\xad!@'
tRp58
ag3
(g5
S'\xfe\x81\x97"4o @'
tRp59
ag3
(g5
S'.\xc3\xa21]\x8b\x1b@'
tRp60
ag3
(g5
S'\x03fw\x93-y\x9f?'
tRp61
ag3
(g5
S't\x89\xa1\x00\x17\xb2\xd0?'
tRp62
ag3
(g5
S'?h\x86\xf2R\xb3\xa6?'
tRp63
ag3
(g5
S'<\xd4$\x992\r\xaf?'
tRp64
ag3
(g5
S'\xe2\x15\xa0$\x96\xbe\x92?'
tRp65
ag3
(g5
S'0w\x84\x1dwE\x9d?'
tRp66
ag3
(g5
S'\xebmHJ\x81\xfcj@'
tRp67
ag3
(g5
S'\xc1,1r\xcc*W@'
tRp68
ag3
(g5
S'\x8c\xac\xee\xe5\x8f\xc4\xea?'
tRp69
ag3
(g5
S'\x9b\xfd\xf5&\xb9w7@'
tRp70
ag3
(g5
S'w\x1e\x03\xd6AW\xa4?'
tRp71
ag3
(g5
S'\xc4m\xe1\xd4\xf4\x0f\x9b?'
tRp72
ag3
(g5
S'\x05\xed\x18\xb0\xb2\x12\xeb?'
tRp73
ag3
(g5
S'$\xa6\xf5\x88\xc1\x16\xc5?'
tRp74
ag3
(g5
S'\x83\x0fm\x11\xc5\x1c\xd4?'
tRp75
ag3
(g5
S'\x90Q\xd6\x1c\xa51\xdf?'
tRp76
ag3
(g5
S'\x8eR\xba\xc5\x9dl\xd3?'
tRp77
ag3
(g5
S'k\xb3l\xbc\xb6\xa6\xc8?'
tRp78
ag3
(g5
S'xd\x01\xdb?\xba\xdf?'
tRp79
ag3
(g5
S'2~\x93\xa6\x8c\xe6\x96?'
tRp80
ag3
(g5
S'\x99\x97\x07F\xa9h\x07@'
tRp81
ag3
(g5
S'\x9fo\xd0\xa7\xdf\x08\xd0?'
tRp82
ag3
(g5
S'0V\x1a\xcf\x7f7\xf1?'
tRp83
ag3
(g5
S'b*\x98F\xe1\x07\xf5?'
tRp84
ag3
(g5
S'\x8b\xf8\x91\xde\x03\x1a\xfd?'
tRp85
ag3
(g5
S'\x0e\x83\x03\xf0g;\xd7?'
tRp86
ag3
(g5
S'WH\xee\xf2J\x81\xd4?'
tRp87
ag3
(g5
S'\x0f\x85\x80mu\xf7\xc8?'
tRp88
ag3
(g5
S'\xe7\xb7l|9S\xd0?'
tRp89
ag3
(g5
S'.\x1e|\xd2\xd1\xa2\xda?'
tRp90
ag3
(g5
S'\xc4s\x13\x00M\xffB@'
tRp91
ag3
(g5
S';\xd9\xfa\x15\x8bZ\x12@'
tRp92
ag3
(g5
S'\x80\x92m\xfah\xf8<@'
tRp93
ag3
(g5
S'\x91\x8eV\x96\xe8\x0eD@'
tRp94
ag3
(g5
S'\n\xab\x82\x9e\x9bJ3@'
tRp95
ag3
(g5
S'u\xea\xc8\x14\x9b\xaf\xd9?'
tRp96
ag3
(g5
S'\xa0)\x8c\x8a\x81\xc4\xdf?'
tRp97
ag3
(g5
S'mq*b\xf1\xab\xe9?'
tRp98
ag3
(g5
S'\xa8\xd8\x17p-G\xe3?'
tRp99
ag3
(g5
S'\xe0\xec\xc9\xd9i\xaa\xc0?'
tRp100
ag3
(g5
S'\xf0\x10\xb6\x944J\xde?'
tRp101
ag3
(g5
S'*\xb0Y\x04\xc2\xd3\xd2?'
tRp102
ag3
(g5
S'<xi\xd2"\x91\xac?'
tRp103
ag3
(g5
S'\xf43\x84`9\xe5\xc0?'
tRp104
ag3
(g5
S'|\xc0\xe5/e^\x99?'
tRp105
ag3
(g5
S'\xb8^\xce\xb5\xfb\x0e\xfc?'
tRp106
ag3
(g5
S'\x14\x92p\xba\xbfh\x10@'
tRp107
ag3
(g5
S'\xf3\x84_\xba\xeb\x14\xfd?'
tRp108
ag3
(g5
S'Ieu\xd0\xe0\x17\xd5?'
tRp109
ag3
(g5
S'N\xadT\xc7\x8eF\xb8?'
tRp110
ag3
(g5
S'\x1ah\xc7\na}\xc4?'
tRp111
ag3
(g5
S'\t\\d\x8d=y\xd2?'
tRp112
ag3
(g5
S'\x85\xcf\x99\x82\x8b\x1c\xdd?'
tRp113
ag3
(g5
S'\x1c\xed$_6\x0e\xb2?'
tRp114
ag3
(g5
S'&\xb9[\x0b\x84H\x95?'
tRp115
ag3
(g5
S'\xe6\x06R&\x8e D@'
tRp116
ag3
(g5
S'\xdc\x15Q\x92\xf6U;@'
tRp117
ag3
(g5
S'\xd1\x85<\x99\x10\x96R@'
tRp118
ag3
(g5
S'\x9d\t$\xd1\xe2\x195@'
tRp119
ag3
(g5
S'\xaf\xc2\x08\x1e\xe5\xf90@'
tRp120
ag3
(g5
S'\xbb\xc6\xbf\xe3\x1b7+@'
tRp121
aI6
aI6
aI0
aI1
aI0
aI1
aI1
aI1
ag3
(g5
S'n\xb0\xacP\xab\x070@'
tRp122
aa(lp123
g3
(g5
S'\x98-"\x86/\xc8\x86?'
tRp124
ag3
(g5
S'\x01-\n6A_\x06@'
tRp125
ag3
(g5
S'k\x034\xff/\xed\xac?'
tRp126
ag3
(g5
S'\xbf\x08\x98td]\x12@'
tRp127
ag3
(g5
S'#\xc7\xda\xc3H\x83\x1a@'
tRp128
ag3
(g5
S'\xca\x183-\xe9b\x0c@'
tRp129
ag3
(g5
S' \xa4\xe5\x92\xb8\xa1\x06@'
tRp130
ag3
(g5
S'\x0c~UI\xb5IA@'
tRp131
ag3
(g5
S'\xa0\xad\x93\r\x0b*\xde?'
tRp132
ag3
(g5
S'MEZ\xf61\xbf\t@'
tRp133
ag3
(g5
S'\xf30Wh\xc3\x18.@'
tRp134
ag3
(g5
S"\x81\x8ck\xf6\xdd\x15'@"
tRp135
ag3
(g5
S'V\x17\xd5^\xaa\x8f&@'
tRp136
ag3
(g5
S'\x1dU\x1c\xeb?\x1b,@'
tRp137
ag3
(g5
S'.H^O\x14\x93(@'
tRp138
ag3
(g5
S'\x91\x0b\r,\x04\xb4#@'
tRp139
ag3
(g5
S'\xef\n\x8b\xc9\x8c\xbd\xbf?'
tRp140
ag3
(g5
S'\xa7\x13\xc7\xcaA\x93\xb6?'
tRp141
ag3
(g5
S'\xf2.\x0ec5\xcf\xc9?'
tRp142
ag3
(g5
S'\xd6\xe9Yu\xaa\xa8\xb1?'
tRp143
ag3
(g5
S'\xb0\xdf\x91\xf0\xb9C\xd2?'
tRp144
ag3
(g5
S'}\x126\xf9\x11;\xd8?'
tRp145
ag3
(g5
S'\xa8s;\xe1\xe0y:@'
tRp146
ag3
(g5
S'\x9e?\xe1\x0e_B\xf6?'
tRp147
ag3
(g5
S'\x88\xf8\xca\xb8\xedj#@'
tRp148
ag3
(g5
S'\xfe\xde!\x80\x89\x8b\x00@'
tRp149
ag3
(g5
S' \x90\xb5|\xb2MD@'
tRp150
ag3
(g5
S'4$\xed\x83S8:@'
tRp151
ag3
(g5
S'\\\xc1&\xa7C\x1e$@'
tRp152
ag3
(g5
S'\xdc\x8c\x01iE\xd0\x18@'
tRp153
ag3
(g5
S'ls\x94\x18\xe0\x90\x17@'
tRp154
ag3
(g5
S'\xbe\x93\x88j\xf6\xa6\x1c@'
tRp155
ag3
(g5
S'\t\x86\x97V\x0fz0@'
tRp156
ag3
(g5
S'L1\xeey\xdf\xd7%@'
tRp157
ag3
(g5
S'\xc3\x0eC\xedf\xd2\xb3?'
tRp158
ag3
(g5
S'\x88=\xb7\x85QS\xd2?'
tRp159
ag3
(g5
S'\xd9\x1e\xdd$\x88\xff\xa8?'
tRp160
ag3
(g5
S'>\x88\xac5\xb7\x94\xce?'
tRp161
ag3
(g5
S'\xdeq\x83\xaf4\x93v?'
tRp162
ag3
(g5
S'\x04"2\xcc&\xf4\xb2?'
tRp163
ag3
(g5
S'\x98|\xd9S\x02\xa1\x07@'
tRp164
ag3
(g5
S'B}M\xc8\xf1\x0b\xb9?'
tRp165
ag3
(g5
S'\x93\x00w\xb3\xf2\x9b4\xc0'
tRp166
ag3
(g5
S'\x99iQ\x97\x94\xb7)@'
tRp167
ag3
(g5
S'H\xc0\xc9+\x04o%@'
tRp168
ag3
(g5
S'\x03\x9f\x10uC\xa0\x17@'
tRp169
ag3
(g5
S'c\r\x80\xf2 f%@'
tRp170
ag3
(g5
S'\xd0\xee\xcb\x1f\xc8N.@'
tRp171
ag3
(g5
S'q\xb4N"2tQ@'
tRp172
ag3
(g5
S'_\x03\x92y+\xf9 @'
tRp173
ag3
(g5
S'\\\t\xf1\xefU\x93!@'
tRp174
ag3
(g5
S'\xc2\xaf\xe6k\xf9\xa8\x1b@'
tRp175
ag3
(g5
S'\x06\x81\xa5\xb27\xad!@'
tRp176
ag3
(g5
S'\xf0\xe4\x8f\x95ip @'
tRp177
ag3
(g5
S'\xbci \x04\xeb\x8d\x1b@'
tRp178
ag3
(g5
S'\\\xcbM@K\x04\xa8?'
tRp179
ag3
(g5
S'\x90\xdc\xa0\xaf\x8b\xb1\xd0?'
tRp180
ag3
(g5
S'\xfaQ\x88\xfa\x7f\x03\xa7?'
tRp181
ag3
(g5
S'\x11\xac\x95\xef\xf7f\xad?'
tRp182
ag3
(g5
S'1\xfe\xa1\x85\xb8\xbe\x92?'
tRp183
ag3
(g5
S'K\xde\n\x93\x82E\x9d?'
tRp184
ag3
(g5
S"6\x03'_\x81\xfcj@"
tRp185
ag3
(g5
S'`\xe80\xaf\xe2*W@'
tRp186
ag3
(g5
S'\xbef\xc0\xfb\x15\x84\xeb?'
tRp187
ag3
(g5
S'i\xf4\xf7\xff\x16w7@'
tRp188
ag3
(g5
S'Y\x9a\xc2\n\xcf_\xa4?'
tRp189
ag3
(g5
S'\x03\x85\xe7]\x97\xb5\x9a?'
tRp190
ag3
(g5
S'r\xd7\x12\x95\x9a\x12\xeb?'
tRp191
ag3
(g5
S'\x04\xda<,\xc5\x16\xc5?'
tRp192
ag3
(g5
S'>\xbf?\xc9\xd1\xcf\xd3?'
tRp193
ag3
(g5
S'X-\xf1\xa7A\xbb\xde?'
tRp194
ag3
(g5
S'\xcc\x0ex|\x9dl\xd3?'
tRp195
ag3
(g5
S'D\xf9\x8en\x0f\x97\xc8?'
tRp196
ag3
(g5
S'\x83\xd6\x8e3:\xba\xdf?'
tRp197
ag3
(g5
S'\xdf\x18\x01\x0eF\xd5\xb3?'
tRp198
ag3
(g5
S'\xea\x9bl\x1e\xabh\x07@'
tRp199
ag3
(g5
S'\x83\xf0\xf9\xf5{\xf4\xd5?'
tRp200
ag3
(g5
S'\x05\xc4\x18g\xc6b\xf1?'
tRp201
ag3
(g5
S'\xbc\xc0\x9dM5\x08\xf5?'
tRp202
ag3
(g5
S'\xb0\x1a\x9b\xfe\xf6\x15\xfd?'
tRp203
ag3
(g5
S'>@O\x8c\xc5<\xd7?'
tRp204
ag3
(g5
S'\xe5\x14\x8e\xc3%\xae\xd1?'
tRp205
ag3
(g5
S'O\xfe\xd7z\x85\xae\xc8?'
tRp206
ag3
(g5
S'\x83\x86\x03\xee\xa7^\xd0?'
tRp207
ag3
(g5
S'\x15E<\x96V\xa6\xda?'
tRp208
ag3
(g5
S'Q^\x1e\xefL\xffB@'
tRp209
ag3
(g5
S'\xdd\xa1m\xbek\x87\x10@'
tRp210
ag3
(g5
S'\xe9\xc2\x10\xd2\xe3\xaf<@'
tRp211
ag3
(g5
S'\xdc\xbd\x00V>\xebC@'
tRp212
ag3
(g5
S'O\xa7\x99\x7ffN3@'
tRp213
ag3
(g5
S'\x04\x00\xfb\x12s\xe9\xcd?'
tRp214
ag3
(g5
S'\x03\xb8\xa1I\xc7\xa4\xe3?'
tRp215
ag3
(g5
S'L\x1e\xcf\x94\xfd\xab\xe9?'
tRp216
ag3
(g5
S'\xa7\xf6f\x14?G\xe3?'
tRp217
ag3
(g5
S'7\xaaW\x8fq\xaa\xc0?'
tRp218
ag3
(g5
S'\x8f,\xeb;:}\xde?'
tRp219
ag3
(g5
S'\x13\x8e\x14l5\xd3\xd2?'
tRp220
ag3
(g5
S'\xb8\x1c\x87\xaf\x96O\xb5?'
tRp221
ag3
(g5
S'\xf3\xd5\x9dcv\xe9\xc0?'
tRp222
ag3
(g5
S'\x9ct\x1d\xf5\xbf\xb1\x98?'
tRp223
ag3
(g5
S'\xf5\xe3\xdc\xbd\xe5\x0f\xfc?'
tRp224
ag3
(g5
S'L\xb6U\x98&i\x10@'
tRp225
ag3
(g5
S'\x7f\xb2{V\x1c\xb2\xf9?'
tRp226
ag3
(g5
S'h\xe7\x91K\xcf\x12\xd5?'
tRp227
ag3
(g5
S'<\xf8pc\xc5N\xb8?'
tRp228
ag3
(g5
S'Pxi[\xf8@\xc4?'
tRp229
ag3
(g5
S'\xb6\x9eD\x07\x94~\xd2?'
tRp230
ag3
(g5
S'\xa1\xeb\x03\xc0\xef\x1b\xdd?'
tRp231
ag3
(g5
S'\x00l\x90\xc9+\x11\xb2?'
tRp232
ag3
(g5
S'hE\xa0K\xfch\xa7?'
tRp233
ag3
(g5
S'\xfc\xa9\t4y\x84D@'
tRp234
ag3
(g5
S'\xb5\xa3?(\x9bV;@'
tRp235
ag3
(g5
S'\xf7P\xa1\xf5Q\xecV@'
tRp236
ag3
(g5
S'.$\x04d\xdb\x195@'
tRp237
ag3
(g5
S'\xbf\x0f\x1e<\xee\xfc1@'
tRp238
ag3
(g5
S'\xa6\x908\x81\xb86+@'
tRp239
aI6
aI6
aI0
aI1
aI0
aI1
aI1
aI1
ag3
(g5
S'\xd0\x83>\xb1\x91\x050@'
tRp240
aa(lp241
g3
(g5
S'\x96\xcd\xee\xdc@\xc5\x86?'
tRp242
ag3
(g5
S'\xa8\xed.>A_\x06@'
tRp243
ag3
(g5
S'\xfa \xbb\x0c7\xeb\xac?'
tRp244
ag3
(g5
S'\x81\x9b\x10\xc3[]\x12@'
tRp245
ag3
(g5
S'\xe8\xc5\xbb\xa2I\x83\x1a@'
tRp246
ag3
(g5
S'&~&\x8e_\x87\n@'
tRp247
ag3
(g5
S'\xaf\xa0;::\x9f\x06@'
tRp248
ag3
(g5
S"\x92\xc1:'\xdeEA@"
tRp249
ag3
(g5
S']\x9e\r\xa8\x11#\xde?'
tRp250
ag3
(g5
S'\x93\x85\x1f\xa1\x1cq\x08@'
tRp251
ag3
(g5
S'Fr\xc5@\xf3\x17.@'
tRp252
ag3
(g5
S'+\x07yP\xb7"\'@'
tRp253
ag3
(g5
S'\xabW\x07\x87\xa9\x8f&@'
tRp254
ag3
(g5
S'\x8c(<\x8d\xc6*,@'
tRp255
ag3
(g5
S'\xb2V79\x14\x93(@'
tRp256
ag3
(g5
S'\xad\xdfv\xaa@\xe5"@'
tRp257
ag3
(g5
S'\xa3?/\xca\xd6:\xc1?'
tRp258
ag3
(g5
S'\x81s\x13\xc5\xc6\xf8\xb6?'
tRp259
ag3
(g5
S'\xc5P\xcb\x8e\x86\xce\xc9?'
tRp260
ag3
(g5
S'j\xdf\xf2\xa2\x05\xa9\xb1?'
tRp261
ag3
(g5
S'\xc8\xce\x0fp\xe5D\xd2?'
tRp262
ag3
(g5
S'\xba"\xbc\xc9\x03;\xd8?'
tRp263
ag3
(g5
S'0{^\xbb\xe0y:@'
tRp264
ag3
(g5
S'!\x9d\xaa\x1b\xf3B\xf6?'
tRp265
ag3
(g5
S'\x01\xb6\xa7I\x99\xc4"@'
tRp266
ag3
(g5
S'\xf7\xc8|\x81Y\x8c\x00@'
tRp267
ag3
(g5
S'E\xf2\x93T\x84MD@'
tRp268
ag3
(g5
S'\x07\xbc\x80\x8a81:@'
tRp269
ag3
(g5
S"\xbc<\x9a\x14|{'@"
tRp270
ag3
(g5
S'y\x1d\x89\x02\xe2\t\x19@'
tRp271
ag3
(g5
S'\x0ca\xdb\xcd\xe1\xa2\x17@'
tRp272
ag3
(g5
S'\x85\xfc\xbc\xb96\xaa\x1c@'
tRp273
ag3
(g5
S'\xc1\x98\xeaj\xbc}0@'
tRp274
ag3
(g5
S'\xfb\xab\xb8hD\xba%@'
tRp275
ag3
(g5
S'\xa2\x90\xbb,\xb7\xd8\xb3?'
tRp276
ag3
(g5
S'\x88\x07\xc2\xb4VS\xd2?'
tRp277
ag3
(g5
S'G\xe6\xc6\xf6\x7f\xff\xa8?'
tRp278
ag3
(g5
S';\xec\\\x1d\x15s\xcb?'
tRp279
ag3
(g5
S'h\x82\x8e.\xefc~?'
tRp280
ag3
(g5
S'/$\x8cf&\xf6\xb2?'
tRp281
ag3
(g5
S'\xad\x8c\x8c\xd0s\x9e\x07@'
tRp282
ag3
(g5
S'@\xb7\x9b\xb9\r\x0b\xb9?'
tRp283
ag3
(g5
S's$\x04X\xdf\x9a4\xc0'
tRp284
ag3
(g5
S'\x8e\xa6\x0bw\xa6\xb5)@'
tRp285
ag3
(g5
S'\xb0\xc8\xd4+\x04o%@'
tRp286
ag3
(g5
S'\x9f\x90FX0\xa0\x17@'
tRp287
ag3
(g5
S'?\xf5A\xf4 f%@'
tRp288
ag3
(g5
S'\x97\xf2J\x10\xc8N.@'
tRp289
ag3
(g5
S'\x85\x96\x11:2tQ@'
tRp290
ag3
(g5
S'\xbaM\xa1\x979\xf9 @'
tRp291
ag3
(g5
S'\xbe\x15\x02E\x82\x93!@'
tRp292
ag3
(g5
S'1\xc3\xc4\xddM\xd8"@'
tRp293
ag3
(g5
S'c\x8d,\xb37\xad!@'
tRp294
ag3
(g5
S'\xe0\xb1\x14,[p @'
tRp295
ag3
(g5
S'\x1c\xff<\xd8\xeb\x8d\x1b@'
tRp296
ag3
(g5
S'/D\xd3\x84\x90c\xa6?'
tRp297
ag3
(g5
S'\x0fT!\xf3\x87\xb1\xd0?'
tRp298
ag3
(g5
S'\xa1\xa4\x06\x88\x84\x08\xa7?'
tRp299
ag3
(g5
S'\xce\xef\x13\xce\xc5T\xad?'
tRp300
ag3
(g5
S'\x7fb3\xae\xfb\xca\x92?'
tRp301
ag3
(g5
S'\x93\xb73\x96\x82E\x9d?'
tRp302
ag3
(g5
S'\xb9b\xa1Q~\xfcj@'
tRp303
ag3
(g5
S' \n\xa2\x0b\xe2*W@'
tRp304
ag3
(g5
S'\xecnt\xc63\xb8\xeb?'
tRp305
ag3
(g5
S'\x0b\xf9\x88m\x87?7@'
tRp306
ag3
(g5
S'\x1d\xc3\x85\x8f\xc0z\xa5?'
tRp307
ag3
(g5
S'\xe6\x8f\xf7K\xbb`\xb0?'
tRp308
ag3
(g5
S's\xd4\xee\x19\xa5\x05\xeb?'
tRp309
ag3
(g5
S'\xbc\x93C\xc6\xfe\x16\xc5?'
tRp310
ag3
(g5
S'\x02\x8e\xb1\xa3?\xd2\xd3?'
tRp311
ag3
(g5
S',\xb2\x06A\x06[\xdb?'
tRp312
ag3
(g5
S'\xb2\xa7\x07\x98\x89l\xd3?'
tRp313
ag3
(g5
S'\x93\xfdT3tP\xc7?'
tRp314
ag3
(g5
S'\xcb\x18\x0ea\xcb\xb9\xdf?'
tRp315
ag3
(g5
S'\xc4\xfeek\xd6\xb6\xb2?'
tRp316
ag3
(g5
S'2xdK\xf9g\x07@'
tRp317
ag3
(g5
S'\x89TM<\xde\x81\xd6?'
tRp318
ag3
(g5
S'\xba[\xff\xaf\xc1\x82\xf4?'
tRp319
ag3
(g5
S'3!\xced\xd0\x05\xf5?'
tRp320
ag3
(g5
S'\xee\xba\xc5 \xc9\xec\xfc?'
tRp321
ag3
(g5
S"\xf4b2\x87'\xb4\xd6?"
tRp322
ag3
(g5
S'\x10\x105.o\xb3\xd1?'
tRp323
ag3
(g5
S'\xa8\x7f\xd9\x8b\xa1\xb3\xc8?'
tRp324
ag3
(g5
S'\xe5\x1b\x84\t[\x02\xd0?'
tRp325
ag3
(g5
S'\xc6O\xb0\xaaf\xa6\xda?'
tRp326
ag3
(g5
S"\xf4\x80\x11'_\xffB@"
tRp327
ag3
(g5
S'\x06s\x0c\x9cE\x98\x10@'
tRp328
ag3
(g5
S'\xf2=_$\xde\xb1<@'
tRp329
ag3
(g5
S'\xee\xdb\x9f,LIB@'
tRp330
ag3
(g5
S'\xf4\x00><\x9bN3@'
tRp331
ag3
(g5
S't\xcdO\xdd\xc4\x1e\xce?'
tRp332
ag3
(g5
S'\xa5\xb7\x92\xa2D\xa6\xe3?'
tRp333
ag3
(g5
S'\x94\xbc\x80\xca\xfd\xab\xe9?'
tRp334
ag3
(g5
S' *\x89\x19KQ\xe3?'
tRp335
ag3
(g5
S'b\xe8\xec+L\xa9\xc0?'
tRp336
ag3
(g5
S'#\xb5\xe8u\x80}\xde?'
tRp337
ag3
(g5
S'5\xf6\xfcR\x08\xed\xd2?'
tRp338
ag3
(g5
S'\x83\rj/\xb7X\xb5?'
tRp339
ag3
(g5
S'gC\xe8_\x89\xe9\xc0?'
tRp340
ag3
(g5
S'\xd1\xf8q\xb0\xd35\xa2?'
tRp341
ag3
(g5
S'p\xd5\x12G\x82\xa2\xfb?'
tRp342
ag3
(g5
S'\xdf\xcen\x97(i\x10@'
tRp343
ag3
(g5
S']w&\xdc\x8a\xed\xf9?'
tRp344
ag3
(g5
S'\x03\xe1T\xc5_\xdf\xd4?'
tRp345
ag3
(g5
S'T\x9ev\xa2>\x81\xb7?'
tRp346
ag3
(g5
S'\x02\xec>\xb5,C\xc4?'
tRp347
ag3
(g5
S';\x9e\x8f\x93\x10}\xce?'
tRp348
ag3
(g5
S"\xe09nw\xf8'\xdd?"
tRp349
ag3
(g5
S']rVs<\x11\xb2?'
tRp350
ag3
(g5
S'\xac\x0f\x0e\x98\xf0\x94\xa5?'
tRp351
ag3
(g5
S'S(\xfa\t&\x81D@'
tRp352
ag3
(g5
S'I\xef\xbb\x80\xd7F;@'
tRp353
ag3
(g5
S'\x08|\x1a\xb7;\xabV@'
tRp354
ag3
(g5
S'\x85\xf7\x1f\x8dc\x1b5@'
tRp355
ag3
(g5
S'\x80\xbc\xc8\xa0d\x042@'
tRp356
ag3
(g5
S'!A\xbc\xf2\xb56+@'
tRp357
aI6
aI6
aI0
aI1
aI0
aI1
aI1
aI1
ag3
(g5
S'\x86\x9f\xef\xc2\xaf\x050@'
tRp358
aa(lp359
g3
(g5
S'\xff\x8d\xe8\x1b\x1b~\x86?'
tRp360
ag3
(g5
S'\x846\xd4\xfe=_\x06@'
tRp361
ag3
(g5
S'\xc5\x89\x16\x9c\xd7\xf4\xac?'
tRp362
ag3
(g5
S'\x96\xac\xf6\xd7Z\\\x12@'
tRp363
ag3
(g5
S'\x88\xc5L\xc6H\x83\x1a@'
tRp364
ag3
(g5
S'Z\xa2\xa5\x12b\x14\xf6?'
tRp365
ag3
(g5
S'\xb92\xd63\xe1\x83\x05@'
tRp366
ag3
(g5
S'\xad\x93\xfc\xb8(EA@'
tRp367
ag3
(g5
S'6\xc4m\x1e\xbf!\xdd?'
tRp368
ag3
(g5
S'\xd0\xbb\xc1\x83b\xe2\x10@'
tRp369
ag3
(g5
S'\xcb\x9d\x19c\x87\x17.@'
tRp370
ag3
(g5
S"\x8dy\x19\x85g\x1f'@"
tRp371
ag3
(g5
S's\x8b\xf4h\xaa\x8f&@'
tRp372
ag3
(g5
S'\xb0\xa0P\xd8\xbd\x00*@'
tRp373
ag3
(g5
S'u\x81\xa3<\xd3\x92(@'
tRp374
ag3
(g5
S'\xe8\x14\xfdU\xe4\xa3#@'
tRp375
ag3
(g5
S'\xadJD\x04^\xb6\xbf?'
tRp376
ag3
(g5
S'>\xb9~<U\xc6\xc2?'
tRp377
ag3
(g5
S'n\xb4_\x14\xe6h\xc9?'
tRp378
ag3
(g5
S'\xc4F\xcc8\x93\xb2\xb1?'
tRp379
ag3
(g5
S'\xedT\xb7%\xc0C\xd2?'
tRp380
ag3
(g5
S'\xefV\x0fue;\xd8?'
tRp381
ag3
(g5
S'Ej\xb1Q\xddy:@'
tRp382
ag3
(g5
S'\xff\xd1]+WB\xf6?'
tRp383
ag3
(g5
S'\xbd\x00\nh1\x80"@'
tRp384
ag3
(g5
S'\xfec5\xcc\x11\x82\x00@'
tRp385
ag3
(g5
S'\x89\x08\xeb\x86\xcbFD@'
tRp386
ag3
(g5
S'\x92`\xea\xb8\x06/:@'
tRp387
ag3
(g5
S'R\xab\xb7\xe1\xd2\xf9#@'
tRp388
ag3
(g5
S'y\n\xbe\x9b\xf2\xcf\x18@'
tRp389
ag3
(g5
S'!\xb1\xff(\xe6\xb5\x18@'
tRp390
ag3
(g5
S'\xfeI8\x17\xdc\xfb\x1c@'
tRp391
ag3
(g5
S'\x19\xb8\xa65\xdc\x900@'
tRp392
ag3
(g5
S'\xd7-\xb5z\xc1\xc2%@'
tRp393
ag3
(g5
S'\xa7-Fs.\x17\xb4?'
tRp394
ag3
(g5
S'\x97\x8f\xbf\xc0\xa1S\xd2?'
tRp395
ag3
(g5
S'`0\x81)\xe0\xfe\xa8?'
tRp396
ag3
(g5
S'\xc6\xd2)\xd8\xcfX\xce?'
tRp397
ag3
(g5
S'\t\xcfJ4Jvv?'
tRp398
ag3
(g5
S'\x03WD\xc6\xac\xe1\xb3?'
tRp399
ag3
(g5
S't\xc4VaV\xf6\x06@'
tRp400
ag3
(g5
S'\x98)\x90\xa2C\x07\xb9?'
tRp401
ag3
(g5
S',q\x05\xfa\x8a\x924\xc0'
tRp402
ag3
(g5
S'\xa0\xb6O\xe7\xc6\xb7)@'
tRp403
ag3
(g5
S'\x7fy\xc9+\x04o%@'
tRp404
ag3
(g5
S'\xd0[Ue\x93\xa0\x17@'
tRp405
ag3
(g5
S'D\xceG\xd1 f%@'
tRp406
ag3
(g5
S'\x9cY\xea \xc8N.@'
tRp407
ag3
(g5
S'\x0f\xd0\x819.tQ@'
tRp408
ag3
(g5
S'\xb3U^\xfa\xf1\xf9 @'
tRp409
ag3
(g5
S'\xbd\xe0/\x0e\r\x9f!@'
tRp410
ag3
(g5
S'\x93|\x9c\x98\x9d\x93\x1b@'
tRp411
ag3
(g5
S'\xbdj\xc2\xe4:\xad!@'
tRp412
ag3
(g5
S'\x06z\x0b\x9d-o @'
tRp413
ag3
(g5
S"'\xc2\xd3\xc2\x8b\x8b\x1b@"
tRp414
ag3
(g5
S'\xbbo\xa9z\x19\x02\x91?'
tRp415
ag3
(g5
S'+\x1d\x1b\xc6~\xa7\xd0?'
tRp416
ag3
(g5
S'\x1417\xfd\xc9\xfe\xa8?'
tRp417
ag3
(g5
S'\x1fFO\xf6\x1a\x0e\xaf?'
tRp418
ag3
(g5
S'\x9d\xe7n\x1f&\xc6\x92?'
tRp419
ag3
(g5
S'\xe1*\xac\x1ewE\x9d?'
tRp420
ag3
(g5
S'\xacF\xcdX\x92\xfcj@'
tRp421
ag3
(g5
S'\xea\xdc\xaa\xc28+W@'
tRp422
ag3
(g5
S'6\x9e\xac\x92f\xc2\xea?'
tRp423
ag3
(g5
S'\xc8\x85\x15"\xecw7@'
tRp424
ag3
(g5
S'\xfa\x94\xa4\x16\x1ca\xa4?'
tRp425
ag3
(g5
S'\xf0E\xccs\x90\x1e\x9b?'
tRp426
ag3
(g5
S'&\x82\\k\xce\x13\xeb?'
tRp427
ag3
(g5
S'\x8f{\xe2\xc2\x7f\x17\xc5?'
tRp428
ag3
(g5
S'\x00\xba\xb7I[\xb5\xd3?'
tRp429
ag3
(g5
S'6\t/\xb3wI\xdf?'
tRp430
ag3
(g5
S'QQ\xfe\xbe\xbbl\xd3?'
tRp431
ag3
(g5
S'\xe5\xcf*T\x89\xa1\xc8?'
tRp432
ag3
(g5
S'\xfct3\xc5^\xba\xdf?'
tRp433
ag3
(g5
S'\xf2Sj\xd4X\xe3\x96?'
tRp434
ag3
(g5
S'G\xfcWx\xcd\x84\x07@'
tRp435
ag3
(g5
S'\xbf\x10H{]\x0c\xd0?'
tRp436
ag3
(g5
S'\x0e}\xf3\x8a\x829\xf1?'
tRp437
ag3
(g5
S'\x07\x82\xa0\xe1\xe2\x07\xf5?'
tRp438
ag3
(g5
S'lmq\xd0\xa8u\x00@'
tRp439
ag3
(g5
S'_u\r\xa04;\xd7?'
tRp440
ag3
(g5
S'\x1d*/dQ\x82\xd4?'
tRp441
ag3
(g5
S'KU^\xecl\xf7\xc8?'
tRp442
ag3
(g5
S'\xbeh\x1d@\xfbR\xd0?'
tRp443
ag3
(g5
S'\xef[7\xa5\x80\xa2\xda?'
tRp444
ag3
(g5
S'B\xfd\xaah]\xffB@'
tRp445
ag3
(g5
S'r\x12\x96\x8e\x91q\x12@'
tRp446
ag3
(g5
S'q\xfc\xe4\x96D\xf9<@'
tRp447
ag3
(g5
S'\x7fN\x0c\xa2L\x0cD@'
tRp448
ag3
(g5
S'9P\x96\xf2\x9bJ3@'
tRp449
ag3
(g5
S'j>]]\xe8\xb9\xd0?'
tRp450
ag3
(g5
S'{\x92\x08E\xf9\x84\xdf?'
tRp451
ag3
(g5
S'\xc4\xc0wu\xf1\xab\xe9?'
tRp452
ag3
(g5
S'D\xca\xb3\x1a:G\xe3?'
tRp453
ag3
(g5
S'\xaeWX\xe1`\xa8\xc0?'
tRp454
ag3
(g5
S'\xc6\r\xd0\xa25J\xde?'
tRp455
ag3
(g5
S"\x00\x82u'y\xd4\xd2?"
tRp456
ag3
(g5
S'\x8f\x9b"\x10\x95\xe2\xac?'
tRp457
ag3
(g5
S'a|\xb7\xf69\xe5\xc0?'
tRp458
ag3
(g5
S'\xcf10.\x19_\x99?'
tRp459
ag3
(g5
S'Y\xc7\x97\xfaN\x9e\xfb?'
tRp460
ag3
(g5
S'\xceH\xb5\x9d\x99h\x10@'
tRp461
ag3
(g5
S'\xed\xdd\xf4y\xbe(\xfd?'
tRp462
ag3
(g5
S't4_\xfd\x04\xda\xd4?'
tRp463
ag3
(g5
S'\xbf\xf5\x11\xbduF\xb8?'
tRp464
ag3
(g5
S'\xb1H\x7f\x98[}\xc4?'
tRp465
ag3
(g5
S'~\xfb\xb4\xd3\x87s\xd2?'
tRp466
ag3
(g5
S'\xd7j\xed\x16\xe7(\xdd?'
tRp467
ag3
(g5
S'\x9d\xbb\xe216\x0e\xb2?'
tRp468
ag3
(g5
S'\xf4\xd3\xf3\x18\xfbI\x95?'
tRp469
ag3
(g5
S'lQb\xc7\xfe#D@'
tRp470
ag3
(g5
S'2\xfd\x87k\xe1U;@'
tRp471
ag3
(g5
S'\xbf\x05\xc0\xd5\x16\x96R@'
tRp472
ag3
(g5
S'}2C#*75@'
tRp473
ag3
(g5
S'\x17\x91\x87@\xd7\xf90@'
tRp474
ag3
(g5
S'\xf4/\x1b\xee\x187+@'
tRp475
aI6
aI6
aI0
aI1
aI0
aI1
aI1
aI1
ag3
(g5
S'\xc9\xcf\x80/\xa9\x070@'
tRp476
aa(lp477
g3
(g5
S'\x01\xe1kR\xf8\xbf\x85?'
tRp478
ag3
(g5
S'\xb5\x05r\x11\x7f\x93\x04@'
tRp479
ag3
(g5
S'\tr\x13\x8c\x82\xeb\xac?'
tRp480
ag3
(g5
S'\xe74wg\xf8K\x12@'
tRp481
ag3
(g5
S'"\xabu\\I\x83\x1a@'
tRp482
ag3
(g5
S'.\x8a\xe0\x90\x9a\xd0\n@'
tRp483
ag3
(g5
S'\x87$\xaa6G\xd6\x06@'
tRp484
ag3
(g5
S'\xe5\xec6\x95\xfcDA@'
tRp485
ag3
(g5
S"X\xe2\xa9'?\x91\xde?"
tRp486
ag3
(g5
S'\xb4g\xeb\xa0\xca\xc7\x10@'
tRp487
ag3
(g5
S'0m<\x97\x1a\x19.@'
tRp488
ag3
(g5
S"\x07\xb2\xab\xd97#'@"
tRp489
ag3
(g5
S'F\x1e\xe6$\x7f\x90&@'
tRp490
ag3
(g5
S'\xc4g\x90\x90\xf6-,@'
tRp491
ag3
(g5
S'\xd2\xa4?\xcb\x1d\x0c(@'
tRp492
ag3
(g5
S'\x1ej\x0e\x8c\xe8:!@'
tRp493
ag3
(g5
S'^R\xa9\xc8C"\xc1?'
tRp494
ag3
(g5
S'Hh\xabBiF\xb5?'
tRp495
ag3
(g5
S'\xafy\x1fK\x87\xac\xca?'
tRp496
ag3
(g5
S'\xed?\xd3\\\xce\xac\xb1?'
tRp497
ag3
(g5
S'+r\x12}\xaf\xc4\xd1?'
tRp498
ag3
(g5
S'Ky1\xefIH\xd8?'
tRp499
ag3
(g5
S'\xc5 >\xf8\x98y:@'
tRp500
ag3
(g5
S'\xcf\xee/\x9b`B\xf6?'
tRp501
ag3
(g5
S'KW\x075\xd3\x82"@'
tRp502
ag3
(g5
S'(o\x14\xe7[\xfb\x00@'
tRp503
ag3
(g5
S'\xe6O9/\xaeGD@'
tRp504
ag3
(g5
S'\x06\xbfJ\xb9\x86c:@'
tRp505
ag3
(g5
S"\xe4\x9c\xdd{l\x1f'@"
tRp506
ag3
(g5
S'\xe3*Y\xae+\x8a\x19@'
tRp507
ag3
(g5
S'9\x8a\xde\x1d\x8c\xbc\x18@'
tRp508
ag3
(g5
S'\xf0\xc1\x9e\xef\x97\x9b\x1c@'
tRp509
ag3
(g5
S'\x89\x88W\xaa\xa9\x920@'
tRp510
ag3
(g5
S'\xa6+\xe3\xac2[$@'
tRp511
ag3
(g5
S'\xd7\x1aP\xc3\xb6\x1a\xb4?'
tRp512
ag3
(g5
S'$\xec\x828\xc3E\xd3?'
tRp513
ag3
(g5
S'\xae\xb1\x95\x1cWg\xa8?'
tRp514
ag3
(g5
S'\x0e\xd4\x9b\xca\xae:\xcb?'
tRp515
ag3
(g5
S'c\x86\x99\xecUC\x80?'
tRp516
ag3
(g5
S'\xb7\x0cl\xf4\xbe>\xb3?'
tRp517
ag3
(g5
S'\xed\x08\xe6\x88_\x00\x07@'
tRp518
ag3
(g5
S'\xb4Z\xfd\x7f\x16\x82\xb9?'
tRp519
ag3
(g5
S'U\xf4\xfc(N\x954\xc0'
tRp520
ag3
(g5
S'H\xd1\x9d\xa9G\xb8)@'
tRp521
ag3
(g5
S'\x06k\xca+\x04o%@'
tRp522
ag3
(g5
S'\xac\xc9\xe5\xed\xb4\xa5\x17@'
tRp523
ag3
(g5
S'\x13\x9a\x14\xed f%@'
tRp524
ag3
(g5
S'\xa9\xec\x1a\x15\xc8N.@'
tRp525
ag3
(g5
S'djfc*tQ@'
tRp526
ag3
(g5
S'\xc1\xb1\xc7\xf7\x83,"@'
tRp527
ag3
(g5
S'\x1c`\x12?O\x8b!@'
tRp528
ag3
(g5
S'4\xef\x1b\x82\x11\xeb"@'
tRp529
ag3
(g5
S'g\x13\xfb0R\xad!@'
tRp530
ag3
(g5
S'\xec\x15\x9a\xdd\xe3\x84 @'
tRp531
ag3
(g5
S'i\xec\x8e\xb9t\x8b\x1b@'
tRp532
ag3
(g5
S'\xec(1e\x11\t\xa0?'
tRp533
ag3
(g5
S'\x9f\xc9.\\\xfc\xdb\xd1?'
tRp534
ag3
(g5
S'|\xa9@``\xd2\xa6?'
tRp535
ag3
(g5
S'\xd0O}\xf9X\xad\xab?'
tRp536
ag3
(g5
S'h\x05D\x98\xfa\xbe\x92?'
tRp537
ag3
(g5
S'\xe5a\x90\x81\xbcL\x9d?'
tRp538
ag3
(g5
S'P\x8d\xa1n\x93\xfcj@'
tRp539
ag3
(g5
S'\xfd\x06\x12\x8aj-W@'
tRp540
ag3
(g5
S'\x10P9\xf8\x87\xc1\xeb?'
tRp541
ag3
(g5
S'\x0c&\xe4\xba\xe6J7@'
tRp542
ag3
(g5
S'\xdf\x13\xa2\xb4\xd9\xb2\xbb?'
tRp543
ag3
(g5
S'\x9f(\x16X\xc7\xa9\xb2?'
tRp544
ag3
(g5
S'\x1e\x9b(\xbb\xec\x02\xeb?'
tRp545
ag3
(g5
S'2\xd4\xa3\xe4\xb8\x19\xc5?'
tRp546
ag3
(g5
S'X\xa9!\xf5 \xae\xd3?'
tRp547
ag3
(g5
S'\xc28wYV\xb2\xdb?'
tRp548
ag3
(g5
S'\xe6\xf6\xeew\xa2z\xd3?'
tRp549
ag3
(g5
S'O\x10[i\x7f~\xc8?'
tRp550
ag3
(g5
S'\xe2VL\x97\x8c\xb0\xdf?'
tRp551
ag3
(g5
S'\x0f\x12O\x99\xae3\x96?'
tRp552
ag3
(g5
S'\x8cJm\r8i\x07@'
tRp553
ag3
(g5
S'+\xcc\x81\xcfS)\xd6?'
tRp554
ag3
(g5
S'S\x1c-\xe3\xe6&\xf5?'
tRp555
ag3
(g5
S'\x97\n)\x96\x8c\x02\xf5?'
tRp556
ag3
(g5
S'\x7fE%B\xbf9\x01@'
tRp557
ag3
(g5
S'\x07\xb6\x16*\x9a}\xd0?'
tRp558
ag3
(g5
S"|A2't8\xd3?"
tRp559
ag3
(g5
S'\xc1Jj\xb9=\xf2\xc8?'
tRp560
ag3
(g5
S'\xeaQ\xed\xf6un\xd0?'
tRp561
ag3
(g5
S'5\x01s\xf5\x01A\xda?'
tRp562
ag3
(g5
S'\x11y\xddh\xde\x02C@'
tRp563
ag3
(g5
S'\xbd\xd3\xe6\x87\xf3F\x12@'
tRp564
ag3
(g5
S';\xdfs8x\xf7<@'
tRp565
ag3
(g5
S'\xc8\x90\xc6|\x89\x0cD@'
tRp566
ag3
(g5
S'1\x06"\x113\x805@'
tRp567
ag3
(g5
S'\x0c\xd3zC\xffg\xd0?'
tRp568
ag3
(g5
S'\x94\xf3iv\x13\xdc\xe3?'
tRp569
ag3
(g5
S'Qyd\x11\xf8\xab\xe9?'
tRp570
ag3
(g5
S'\xd0VF\x14}G\xe3?'
tRp571
ag3
(g5
S'\x03\xc8z\xf2\t\xa9\xc0?'
tRp572
ag3
(g5
S'\xb5 k\xc5\xe7\x03\xdf?'
tRp573
ag3
(g5
S'\xa7\xda\x0c\x99$j\xcd?'
tRp574
ag3
(g5
S'\xad\xd6\xec\x1d\xca\xac\xbe?'
tRp575
ag3
(g5
S'\xa5\xccp*s\xe6\xc0?'
tRp576
ag3
(g5
S'\x9d\x95\xb2\xca\x8dT\x9a?'
tRp577
ag3
(g5
S'\xacPo\x04C\x9e\xfb?'
tRp578
ag3
(g5
S'\xcaZF\xb9\xc7\xed\x11@'
tRp579
ag3
(g5
S'\x9e\xb6q\x1e\x8f&\xfd?'
tRp580
ag3
(g5
S'*lhu\x10\x1a\xd5?'
tRp581
ag3
(g5
S'\xea\x1dL\xd3<*\xb7?'
tRp582
ag3
(g5
S'\x03\xf6nrKB\xc4?'
tRp583
ag3
(g5
S'\xd22+5\x92\x0b\xd0?'
tRp584
ag3
(g5
S'Z\xd9>P\x0f\x1d\xdd?'
tRp585
ag3
(g5
S'NUs7\x076\xb2?'
tRp586
ag3
(g5
S'\x1er\xae:\xea\xcc\x8b?'
tRp587
ag3
(g5
S'Qq\xae\x14>|D@'
tRp588
ag3
(g5
S'nc\xd9m\x1dJ;@'
tRp589
ag3
(g5
S'\x05\xa6\xc7\x16\x83\x93R@'
tRp590
ag3
(g5
S'8\xeb\x15\xf0\x83\xd23@'
tRp591
ag3
(g5
S'\xe8l\x05\x94\xfa\x011@'
tRp592
ag3
(g5
S'7  \xf4\xa7\x18+@'
tRp593
aI6
aI6
aI0
aI1
aI0
aI1
aI1
aI1
ag3
(g5
S')\xd3\x8158\x030@'
tRp594
aa(lp595
g3
(g5
S'\xa8\x9a\x07h\xdb}\x86?'
tRp596
ag3
(g5
S'8=\xa8(A_\x06@'
tRp597
ag3
(g5
S'\x00.]\xfa\xf5\xec\xac?'
tRp598
ag3
(g5
S'\xfc}dLy\\\x12@'
tRp599
ag3
(g5
S'\xe2\xfa\xc3\xb8I\x83\x1a@'
tRp600
ag3
(g5
S'\x98x\x9c{\xc0\xae\n@'
tRp601
ag3
(g5
S'\xcf\x81\x1d\x94\xd7m\x06@'
tRp602
ag3
(g5
S'\xc4J\x84)\xaeIA@'
tRp603
ag3
(g5
S'?$\xf0\xfd\xf5#\xde?'
tRp604
ag3
(g5
S'\xa5\xc2\x03d\xec\xd1\x07@'
tRp605
ag3
(g5
S'\x1eH\xeab\x01\x18.@'
tRp606
ag3
(g5
S"\x17\x0c\xa2V\x08#'@"
tRp607
ag3
(g5
S'\xc0\x14\x18]\xc9\x8f&@'
tRp608
ag3
(g5
S'>90\xb8c(,@'
tRp609
ag3
(g5
S'\xd6\x86\xbd\xd4\x13\x93(@'
tRp610
ag3
(g5
S'*\x0b\xd1L\xf2\xc1"@'
tRp611
ag3
(g5
S'\\\xfa\xc2\x0e"2\xc1?'
tRp612
ag3
(g5
S'6\xa1\xd9\xbfw\xc9\xb6?'
tRp613
ag3
(g5
S'\n\x12\xf5,F\xc7\xc9?'
tRp614
ag3
(g5
S'\x0f\xf20\x1d\xd1\xa9\xb1?'
tRp615
ag3
(g5
S'6\x17\xad\xc7[-\xd2?'
tRp616
ag3
(g5
S'M<z5\x1c;\xd8?'
tRp617
ag3
(g5
S'IQz\xa3\x98y:@'
tRp618
ag3
(g5
S'\xfa\xc9d)OB\xf6?'
tRp619
ag3
(g5
S'-\x15\x1b\xbeKy#@'
tRp620
ag3
(g5
S'\xa3\xddk\xd2\xf2|\x00@'
tRp621
ag3
(g5
S'\xec\x87\xb3H\xb5FD@'
tRp622
ag3
(g5
S'r\xff\xfd\x8aGi:@'
tRp623
ag3
(g5
S'L0\xeb\xc5\x8d\x0b$@'
tRp624
ag3
(g5
S'N\xe2\x8f>\x99\x0b\x19@'
tRp625
ag3
(g5
S'\x1a"\x13\xc0T\xa1\x17@'
tRp626
ag3
(g5
S'J\xf0\x8d\xd6>\xab\x1c@'
tRp627
ag3
(g5
S'\x1a\xf49\xbf4y0@'
tRp628
ag3
(g5
S'\xf7\xbd\xe9ev\xca%@'
tRp629
ag3
(g5
S'\x98\x13\xa2[+\xf5\xae?'
tRp630
ag3
(g5
S'\xe2 \xd7\x90\xaeS\xd2?'
tRp631
ag3
(g5
S'\xfc\n\xafw\xc1.\xa9?'
tRp632
ag3
(g5
S'X\xa9\xefLL\xf2\xce?'
tRp633
ag3
(g5
S'y\x88`\xfd\x86\x81v?'
tRp634
ag3
(g5
S'\xfe\x19z\xb1\x8c\xe1\xb3?'
tRp635
ag3
(g5
S'\x15\xfd\xf0\xd0\xa4\x9b\x07@'
tRp636
ag3
(g5
S'EX\x00\xcf\x10\x0c\xb9?'
tRp637
ag3
(g5
S'h\xbd\xb8~\x94\x163\xc0'
tRp638
ag3
(g5
S'\xfe\xbd\x89w\xa6\xb5)@'
tRp639
ag3
(g5
S'\x0b\xb5\xc7+\x04o%@'
tRp640
ag3
(g5
S'\xfa\xc4-[K\xa0\x17@'
tRp641
ag3
(g5
S'\x11\x86\x1b\xf4 f%@'
tRp642
ag3
(g5
S'\xe7\xe3\x83\x14\xc8N.@'
tRp643
ag3
(g5
S'\xcf\xc8\xc6:.tQ@'
tRp644
ag3
(g5
S'\xa8\x8a{\xed\xc9\xf8 @'
tRp645
ag3
(g5
S'\x1d\xcaE\x99v\x93!@'
tRp646
ag3
(g5
S'\x98)R\xd0\xd5\xeb"@'
tRp647
ag3
(g5
S'YQ\xab\x997\xad!@'
tRp648
ag3
(g5
S'%92\xe6\x83\x85 @'
tRp649
ag3
(g5
S'r)\xd0xZ\x8b\x1b@'
tRp650
ag3
(g5
S'\x80`p\x89\r\xcd\x9f?'
tRp651
ag3
(g5
S']\x8f>T\xcd\xb1\xd0?'
tRp652
ag3
(g5
S'\x98\xa0Vz\xa7\x08\xa7?'
tRp653
ag3
(g5
S'e\xc7\x80\xe9\xa8\xde\xb4?'
tRp654
ag3
(g5
S'ckO\xd1\xac\xbe\x92?'
tRp655
ag3
(g5
S'\xf3\x13\x95Q\xfbE\x9d?'
tRp656
ag3
(g5
S'P;\r\xf2~\xfcj@'
tRp657
ag3
(g5
S'hj\x0c\xd4\xc3*W@'
tRp658
ag3
(g5
S'\xfe\x14Cu1\xb2\xeb?'
tRp659
ag3
(g5
S'd\xc6\xcctZX7@'
tRp660
ag3
(g5
S'x\x91\xe0k\x82\xb1\xbb?'
tRp661
ag3
(g5
S'T\xee@X\xc9\x1b\x9c?'
tRp662
ag3
(g5
S'\x07\x85-K\x80\x1f\xea?'
tRp663
ag3
(g5
S'\xeb\xc7\x82\xed\xe2\x16\xc5?'
tRp664
ag3
(g5
S'\x80\x95\xcbg\x13%\xd4?'
tRp665
ag3
(g5
S'}\xf17|\xec\xc5\xdb?'
tRp666
ag3
(g5
S"\x17\xc9'6\x81l\xd3?"
tRp667
ag3
(g5
S'wV\x88\x9b\x1dG\xc8?'
tRp668
ag3
(g5
S'O\x99\x01\x80\xaa\xba\xdf?'
tRp669
ag3
(g5
S'\xde\x17+\xb6\xb2\x8a\xac?'
tRp670
ag3
(g5
S"\xfe\x9a#O'h\x07@"
tRp671
ag3
(g5
S'\x9d8\x1f\x8e\xaab\xd6?'
tRp672
ag3
(g5
S'8\xaa\xf1g\x95\x83\xf4?'
tRp673
ag3
(g5
S'?\x089\xa6\x11\x03\xf5?'
tRp674
ag3
(g5
S'\xd1\xeaV\xd4\x14+\xfd?'
tRp675
ag3
(g5
S'\xd5\x10NKt\xb3\xd6?'
tRp676
ag3
(g5
S'\x85\xe9\x8d\x17\x89\xa7\xd1?'
tRp677
ag3
(g5
S'zh\xfa~\x0c\xb9\xc8?'
tRp678
ag3
(g5
S'\x9e\x94\x94\xfd\x1b\xb4\xd4?'
tRp679
ag3
(g5
S'\xfe\xad\xb3\x99\x1a\xa3\xda?'
tRp680
ag3
(g5
S'\xce\x88\x8f\xc4c\xfdB@'
tRp681
ag3
(g5
S'\x0c\x14\xdd\xbd\xe1Z\x12@'
tRp682
ag3
(g5
S'\x0f._\xda\t\xf4<@'
tRp683
ag3
(g5
S')o{\x83s>B@'
tRp684
ag3
(g5
S'\xc9a\xe1$\x9bN3@'
tRp685
ag3
(g5
S'Y\xa4\xee\xd4\xb9A\xd8?'
tRp686
ag3
(g5
S'\xb1W\xd3\xb0c\xcb\xe4?'
tRp687
ag3
(g5
S'zn0\x07\xf9\xab\xe9?'
tRp688
ag3
(g5
S'\xea\xa4M\x94\xf0E\xe3?'
tRp689
ag3
(g5
S'J\xfc\xed\xd4D\xa9\xc0?'
tRp690
ag3
(g5
S'\xa5\x90T\xa2\xdcV\xde?'
tRp691
ag3
(g5
S'\x95\xe8f\xd2\x86\xe7\xd2?'
tRp692
ag3
(g5
S'\xbdMs\xb0\xa0X\xb5?'
tRp693
ag3
(g5
S'\x0f\x1b*i\x12\xe5\xc0?'
tRp694
ag3
(g5
S'\xd0\x1c"\x83\x95\\\x97?'
tRp695
ag3
(g5
S'\xb1E\x88\xef\x8c\xa2\xfb?'
tRp696
ag3
(g5
S' \x85\x0c\xb2dh\x10@'
tRp697
ag3
(g5
S'\x1fe5\x05S\xef\xf9?'
tRp698
ag3
(g5
S'\xbb\t\xf0\xbb\xb4\x16\xd5?'
tRp699
ag3
(g5
S'u\x8a(\xeeP\x8b\xb7?'
tRp700
ag3
(g5
S'1\xcf=\xbc\x0eC\xc4?'
tRp701
ag3
(g5
S'\x10\xd0\xd3\x8d\xef\n\xd0?'
tRp702
ag3
(g5
S' \xe6_\x07\x8a\x1c\xdd?'
tRp703
ag3
(g5
S'\xa2\xcad\xa1&\x11\xb2?'
tRp704
ag3
(g5
S'\xae9\x85\xe7\xba\xf7\xa5?'
tRp705
ag3
(g5
S'\xec\xceL\x12\x1f\x81D@'
tRp706
ag3
(g5
S'~\x88\x8d\xdaSG;@'
tRp707
ag3
(g5
S'\x9bZvg{\x96R@'
tRp708
ag3
(g5
S'a[s\x12\x81\x1b5@'
tRp709
ag3
(g5
S'2o\x11\x90\n\xfa0@'
tRp710
ag3
(g5
S"r'\xea\xada7+@"
tRp711
aI6
aI6
aI0
aI1
aI0
aI1
aI1
aI1
ag3
(g5
S'\xa0\xe1W@!\x030@'
tRp712
aa(lp713
g3
(g5
S'\xd0\xbb\xd6Cj~\x86?'
tRp714
ag3
(g5
S'\x977\x19\xf4A_\x06@'
tRp715
ag3
(g5
S'\x9a\x80N\xb8\xf4\xec\xac?'
tRp716
ag3
(g5
S'cUq\x1ab\\\x12@'
tRp717
ag3
(g5
S'\xd9\xb5l\xeaH\x83\x1a@'
tRp718
ag3
(g5
S'\xae\x88z\xa6\xd1\x9d\n@'
tRp719
ag3
(g5
S'5\xa1\x9a4R\x9f\x06@'
tRp720
ag3
(g5
S'-\xe6\xfc\x8f\xa9IA@'
tRp721
ag3
(g5
S't\xec\x00p\xcd-\xde?'
tRp722
ag3
(g5
S',\x84\xaa\xb1\x10\xc8\x10@'
tRp723
ag3
(g5
S'C`\x12\x98\x01\x18.@'
tRp724
ag3
(g5
S'a\xcb \xb1\xb4"\'@'
tRp725
ag3
(g5
S'\xf3\n\xe2\xa1\x04\x90&@'
tRp726
ag3
(g5
S'b\x1e~3\xe01,@'
tRp727
ag3
(g5
S'a\xbb\xa3\xad@\x01(@'
tRp728
ag3
(g5
S'QnL\xd6d\xd2"@'
tRp729
ag3
(g5
S'\xaf\x0f>\xf9k#\xc1?'
tRp730
ag3
(g5
S'\xa1\xcf\xa1\xf9\xe3\xcd\xb6?'
tRp731
ag3
(g5
S'R\xc09,g\xb8\xc9?'
tRp732
ag3
(g5
S'\x9a\x1d\x81QHi\xb1?'
tRp733
ag3
(g5
S'QZ\xdc\xa3\xeaC\xd2?'
tRp734
ag3
(g5
S'7\xa7p\xc2\xac7\xd8?'
tRp735
ag3
(g5
S'\xc2-\x98\x88\x98y:@'
tRp736
ag3
(g5
S'\xfb\x93\x8d\xd7NB\xf6?'
tRp737
ag3
(g5
S'}f\xbb\x944\x9d"@'
tRp738
ag3
(g5
S'\xcf\xe3\xffn\xf4\x89\x00@'
tRp739
ag3
(g5
S'\xa7=\xb0\xee\xacFD@'
tRp740
ag3
(g5
S'[,\xb4D2g:@'
tRp741
ag3
(g5
S'\\m\xc1c\xd3E$@'
tRp742
ag3
(g5
S"<\x0c'\x11\xb5\xfe\x18@"
tRp743
ag3
(g5
S'\xbd+"\x94\x9f\xa8\x18@'
tRp744
ag3
(g5
S'\xd70Al*\xab\x1c@'
tRp745
ag3
(g5
S'\x98\xd9` \xefz0@'
tRp746
ag3
(g5
S'\xdb\xbci\x04\r_$@'
tRp747
ag3
(g5
S'?UF\x17(\x15\xb4?'
tRp748
ag3
(g5
S'\xaf\xe0f>\xafS\xd2?'
tRp749
ag3
(g5
S'\x8aIs@\xd7\xfb\xa8?'
tRp750
ag3
(g5
S'\x99\x1fj\xf9\xf6/\xcb?'
tRp751
ag3
(g5
S'\x18\xabra\xe9B\x80?'
tRp752
ag3
(g5